 &FCI NORB=   6,NELEC= 7,MS2=1,
  ORBSYM=1,1,1,1,1,1,
  ISYM=1,
 &END
 3.509391228449803    1    1    1    1
 -0.2919656224139661    1    1    2    1
 0.7280240388737246    1    1    2    2
 -0.203688784669071    1    1    3    1
 0.110402136462685    1    1    3    2
 0.7614880846185604    1    1    3    3
 0.8520106782094841    1    1    4    4
 0.8520106782094841    1    1    5    5
 0.1529885534443684    1    1    6    1
 -0.2134094949517072    1    1    6    2
 0.1434168789927552    1    1    6    3
 0.7374734831139151    1    1    6    6
 -0.291965622413966    2    1    1    1
 0.03921713601124217    2    1    2    1
 -0.005609852007973708    2    1    2    2
 0.02359052003726306    2    1    3    1
 -0.009100510391478633    2    1    3    2
 -0.01313889910683687    2    1    3    3
 -0.009383704963670124    2    1    4    4
 -0.009383704963670124    2    1    5    5
 -0.02458968611879707    2    1    6    1
 0.003322686870809055    2    1    6    2
 -0.004234510047525136    2    1    6    3
 -0.005717605405684197    2    1    6    6
 0.7280240388737246    2    2    1    1
 -0.005609852007973711    2    2    2    1
 0.6080278408072781    2    2    2    2
 -0.01797476229181344    2    2    3    1
 -0.05687912257529433    2    2    3    2
 0.5067589683894059    2    2    3    3
 0.5506148964134618    2    2    4    4
 0.5506148964134618    2    2    5    5
 -0.009239222672457161    2    2    6    1
 -0.05569508862644159    2    2    6    2
 -0.01518827466798764    2    2    6    3
 0.6036455941096673    2    2    6    6
 -0.2036887846690709    3    1    1    1
 0.02359052003726307    3    1    2    1
 -0.01797476229181343    3    1    2    2
 0.02804293842878971    3    1    3    1
 0.007765123915807476    3    1    3    2
 0.005769023757066555    3    1    3    3
 -0.006091336359106764    3    1    4    4
 -0.006091336359106764    3    1    5    5
 -0.001773293599690891    3    1    6    1
 0.01323632747778726    3    1    6    2
 0.005752714732954755    3    1    6    3
 -0.0175209702229464    3    1    6    6
 0.1104021364626849    3    2    1    1
 -0.009100510391478593    3    2    2    1
 -0.05687912257529427    3    2    2    2
 0.007765123915807508    3    2    3    1
 0.09914187104848092    3    2    3    2
 0.05610725883283785    3    2    3    3
 0.0573029509601494    3    2    4    4
 0.0573029509601494    3    2    5    5
 0.01647070783393995    3    2    6    1
 -0.03581248526695006    3    2    6    2
 0.08052321646506355    3    2    6    3
 -0.07506213798811281    3    2    6    6
 0.7614880846185605    3    3    1    1
 -0.01313889910683687    3    3    2    1
 0.5067589683894059    3    3    2    2
 0.005769023757066529    3    3    3    1
 0.05610725883283783    3    3    3    2
 0.613982808773079    3    3    3    3
 0.5621070363291834    3    3    4    4
 0.5621070363291834    3    3    5    5
 0.01978304306406714    3    3    6    1
 -0.02597850317801165    3    3    6    2
 0.08035705378154574    3    3    6    3
 0.5207730582794524    3    3    6    6
 0.02162170411179072    4    1    4    1
 0.02333592869334148    4    1    4    2
 0.01612939120017412    4    1    4    3
 -0.01130647772838301    4    1    6    4
 0.02333592869334149    4    2    4    1
 0.08995497768948094    4    2    4    2
 0.04849997380052546    4    2    4    3
 -0.0415462360149548    4    2    6    4
 0.01612939120017413    4    3    4    1
 0.04849997380052546    4    3    4    2
 0.0579674450752001    4    3    4    3
 -0.006958261635228054    4    3    6    4
 0.8520106782094843    4    4    1    1
 -0.009383704963670152    4    4    2    1
 0.5506148964134618    4    4    2    2
 -0.006091336359106764    4    4    3    1
 0.0573029509601494    4    4    3    2
 0.5621070363291834    4    4    3    3
 0.6728327205216605    4    4    4    4
 0.600295437655869    4    4    5    5
 0.00397244510718988    4    4    6    1
 -0.1068393905649633    4    4    6    2
 0.06917313604288783    4    4    6    3
 0.5233737687603371    4    4    6    6
 0.02162170411179072    5    1    5    1
 0.02333592869334148    5    1    5    2
 0.01612939120017412    5    1    5    3
 -0.01130647772838301    5    1    6    5
 0.02333592869334149    5    2    5    1
 0.08995497768948094    5    2    5    2
 0.04849997380052546    5    2    5    3
 -0.0415462360149548    5    2    6    5
 0.01612939120017413    5    3    5    1
 0.04849997380052546    5    3    5    2
 0.0579674450752001    5    3    5    3
 -0.006958261635228054    5    3    6    5
 0.03626864143289575    5    4    5    4
 0.8520106782094843    5    5    1    1
 -0.009383704963670152    5    5    2    1
 0.5506148964134618    5    5    2    2
 -0.006091336359106764    5    5    3    1
 0.0573029509601494    5    5    3    2
 0.5621070363291834    5    5    3    3
 0.600295437655869    5    5    4    4
 0.6728327205216605    5    5    5    5
 0.00397244510718988    5    5    6    1
 -0.1068393905649633    5    5    6    2
 0.06917313604288783    5    5    6    3
 0.5233737687603371    5    5    6    6
 0.1529885534443683    6    1    1    1
 -0.02458968611879706    6    1    2    1
 -0.009239222672457199    6    1    2    2
 -0.001773293599690869    6    1    3    1
 0.01647070783393996    6    1    3    2
 0.01978304306406709    6    1    3    3
 0.003972445107189879    6    1    4    4
 0.003972445107189879    6    1    5    5
 0.02777203795275496    6    1    6    1
 0.008143166903497792    6    1    6    2
 0.009904175792629212    6    1    6    3
 -0.009283908902307542    6    1    6    6
 -0.2134094949517072    6    2    1    1
 0.003322686870809016    6    2    2    1
 -0.0556950886264416    6    2    2    2
 0.01323632747778722    6    2    3    1
 -0.03581248526695002    6    2    3    2
 -0.02597850317801158    6    2    3    3
 -0.1068393905649633    6    2    4    4
 -0.1068393905649633    6    2    5    5
 0.008143166903497819    6    2    6    1
 0.1102823596769302    6    2    6    2
 -0.05940255213928311    6    2    6    3
 -0.01151951202235565    6    2    6    6
 0.1434168789927554    6    3    1    1
 -0.004234510047525121    6    3    2    1
 -0.01518827466798761    6    3    2    2
 0.005752714732954772    6    3    3    1
 0.08052321646506352    6    3    3    2
 0.08035705378154569    6    3    3    3
 0.06917313604288786    6    3    4    4
 0.06917313604288786    6    3    5    5
 0.009904175792629182    6    3    6    1
 -0.05940255213928309    6    3    6    2
 0.1010146538505706    6    3    6    3
 -0.03893946183176188    6    3    6    6
 -0.01130647772838301    6    4    4    1
 -0.04154623601495479    6    4    4    2
 -0.006958261635228039    6    4    4    3
 0.03272199473414825    6    4    6    4
 -0.01130647772838301    6    5    5    1
 -0.04154623601495479    6    5    5    2
 -0.006958261635228039    6    5    5    3
 0.03272199473414825    6    5    6    5
 0.7374734831139156    6    6    1    1
 -0.005717605405684157    6    6    2    1
 0.6036455941096673    6    6    2    2
 -0.01752097022294633    6    6    3    1
 -0.07506213798811276    6    6    3    2
 0.5207730582794522    6    6    3    3
 0.5233737687603373    6    6    4    4
 0.5233737687603373    6    6    5    5
 -0.009283908902307542    6    6    6    1
 -0.01151951202235585    6    6    6    2
 -0.03893946183176204    6    6    6    3
 0.6558741239933867    6    6    6    6
 -18.23335895620466    1    1  0  0
 0.3526700607569047    2    1  0  0
 -4.211427842495549    2    2  0  0
 0.2389248055841729    3    1  0  0
 -0.2294948225226735    3    2  0  0
 -3.917062592414528    3    3  0  0
 -4.099823445795564    4    4  0  0
 -4.099823445795564    5    5  0  0
 -0.1746264735948501    6    1  0  0
 0.6764708828739291    6    2  0  0
 -0.4470523289993728    6    3  0  0
 -3.278285784550079    6    6  0  0
 2.912902078458716  0  0  0  0
