 &FCI NORB=   2,NELEC= 2,MS2=0,
  ORBSYM=1,1,
  ISYM=1,
 &END
 0.5930824314121553    1    1    1    1
 0.5939661634392074    1    1    2    2
 0.2097914686224456    2    1    2    1
 0.5939661634392074    2    2    1    1
 0.6226985451842461    2    2    2    2
 -1.019585073540323    1    1  0  0
 -0.6340139768872506    2    2  0  0
 0.4409810091  0  0  0  0
